 Gaussian 16, Revision A.03,
 Gaussian 16:  ES64L-G16RevA.03 25-Dec-2016

 ----------------------------------------------------------------------
 #p opt=nomicro oniom(m06/6-311+g(d):external="/home/pbeaujea/g2xtb_int
 erface/interface.py")
 ----------------------------------------------------------------------

 -----------------------------
 Vitamin E oxidation ONIOM opt
 -----------------------------
 Symbolic Z-matrix:
 Charge =  0 Multiplicity = 1 for low   level calculation on real  system.
 Charge =  0 Multiplicity = 1 for high  level calculation on model system.
 Charge =  0 Multiplicity = 1 for low   level calculation on model system.

 Energy=    -94.6801047     NIter=   0.
 SCF Done:  E(RM06) =   -615.78260017437060000000 A.U. after   17 cycles

 The electronic state is 1-A.
 Alpha  occ. eigenvalues --  -19.24836 -19.17503 -10.31819 -10.31713 -10.31329
 Alpha  occ. eigenvalues --  -10.27895 -10.26122 -10.26102 -10.25890 -10.25755
 Alpha  occ. eigenvalues --  -10.25567 -10.25145 -10.24592 -10.23205  -1.11328
 Alpha  occ. eigenvalues --   -0.99007  -0.88018  -0.84088  -0.81088  -0.78803
 Alpha  occ. eigenvalues --   -0.74602  -0.71894  -0.67550  -0.66854  -0.65147
 Alpha  occ. eigenvalues --   -0.58033  -0.56264  -0.54782  -0.53223  -0.50510
 Alpha  occ. eigenvalues --   -0.48192  -0.46819  -0.46147  -0.45499  -0.44582
 Alpha  occ. eigenvalues --   -0.43498  -0.42314  -0.42161  -0.40805  -0.39856
 Alpha  occ. eigenvalues --   -0.39444  -0.38715  -0.38345  -0.37352  -0.35793
 Alpha  occ. eigenvalues --   -0.35681  -0.32650  -0.29950  -0.28719  -0.25590
 Alpha  occ. eigenvalues --   -0.22249
 Alpha virt. eigenvalues --   -0.10254  -0.03606  -0.02457  -0.01994  -0.01528
 Alpha virt. eigenvalues --   -0.00693  -0.00115   0.00118   0.00341   0.00898
 Alpha virt. eigenvalues --    0.01563   0.01901   0.02260   0.02777   0.03339

 Mulliken charges:
               1
     1  C    0.987080
     2  C   -1.750718
     3  C    1.640734
     4  C    0.682681
     5  C    0.744930
     6  C   -1.210521
     7  C   -0.730537
     8  C   -0.586437
     9  H    0.288602
    10  H    0.241452
    11  C   -0.345035
    12  H    0.270741
    13  H    0.291489
    14  O   -0.015619
    15  C   -0.724976
    16  H    0.306166
    17  H    0.267667
    18  O   -0.323909
    19  C   -1.019618
    20  H    0.245644
    21  H    0.284028
    22  H    0.283367
    23  C   -1.160881
    24  H    0.269299
    25  H    0.282580
    26  H    0.281495
    27  H    0.249232
    28  H    0.251063
    29  H    0.000000
    30  H    0.000000
    31  H    0.000000
    32  C    0.000000
    33  H    0.000000
    34  H    0.000000
    35  C    0.000000
    36  H    0.000000
    37  H    0.000000
    38  C    0.000000
    39  H    0.000000
    40  H    0.000000
    41  C    0.000000
    42  C    0.000000
    43  H    0.000000
    44  H    0.000000
    45  C    0.000000
    46  H    0.000000
    47  H    0.000000
    48  C    0.000000
    49  H    0.000000
    50  H    0.000000
    51  C    0.000000
    52  C    0.000000
    53  H    0.000000
    54  H    0.000000
    55  C    0.000000
    56  H    0.000000
    57  H    0.000000
    58  C    0.000000
    59  H    0.000000
    60  H    0.000000
    61  C    0.000000
    62  H    0.000000
    63  H    0.000000
    64  H    0.000000
    65  C    0.000000
    66  H    0.000000
    67  H    0.000000
    68  H    0.000000
    69  H    0.000000
    70  C    0.000000
    71  H    0.000000
    72  H    0.000000
    73  H    0.000000
    74  H    0.000000
    75  C    0.000000
    76  H    0.000000
    77  H    0.000000
    78  H    0.000000
    79  H    0.000000
 Sum of Mulliken charges =  -0.00000

 Dipole moment (field-independent basis, Debye):
    X=              4.3554    Y=              0.8879    Z=              2.4204  Tot=              5.0613
 Quadrupole moment (field-independent basis, Debye-Ang):
   XX=           -145.0547   YY=            -77.8261   ZZ=            -86.0305
   XY=            -15.3073   XZ=            -18.2943   YZ=             -4.7037

 Energy=    -40.8948380     NIter=   0.
 Energy=    -94.7236856     NIter=   0.
 SCF Done:  E(RM06) =   -615.81646874091580000000 A.U. after   15 cycles
 Energy=    -40.9262984     NIter=   0.
 Energy=    -94.7404727     NIter=   0.
 SCF Done:  E(RM06) =   -615.82962669688460000000 A.U. after   15 cycles
 Energy=    -40.9371735     NIter=   0.
 Energy=    -94.7440335     NIter=   0.
 SCF Done:  E(RM06) =   -615.83224342253030000000 A.U. after   14 cycles
 Energy=    -40.9393628     NIter=   0.
 Energy=    -94.7453948     NIter=   0.
 SCF Done:  E(RM06) =   -615.83284589981800000000 A.U. after   14 cycles
 Energy=    -40.9395572     NIter=   0.
 Energy=    -94.7458451     NIter=   0.
 SCF Done:  E(RM06) =   -615.83333809904370000000 A.U. after   14 cycles
 Energy=    -40.9396594     NIter=   0.
 Energy=    -94.7458966     NIter=   0.
 SCF Done:  E(RM06) =   -615.83339690710220000000 A.U. after   12 cycles
 Energy=    -40.9396582     NIter=   0.
 Energy=    -94.7459520     NIter=   0.
 SCF Done:  E(RM06) =   -615.83343522737160000000 A.U. after   12 cycles
 Energy=    -40.9396981     NIter=   0.
 Energy=    -94.7459586     NIter=   0.
 SCF Done:  E(RM06) =   -615.83343611746880000000 A.U. after   10 cycles
 Energy=    -40.9396967     NIter=   0.
 Energy=    -94.7459598     NIter=   0.
 SCF Done:  E(RM06) =   -615.83344176972260000000 A.U. after   10 cycles
 Energy=    -40.9397002     NIter=   0.
 Energy=    -94.7459496     NIter=   0.
 SCF Done:  E(RM06) =   -615.83344340585780000000 A.U. after   10 cycles
 Energy=    -40.9396889     NIter=   0.
 Energy=    -94.7459467     NIter=   0.
 SCF Done:  E(RM06) =   -615.83344300021950000000 A.U. after   11 cycles
 Energy=    -40.9396845     NIter=   0.
 Energy=    -94.7459471     NIter=   0.
 SCF Done:  E(RM06) =   -615.83344289467210000000 A.U. after   10 cycles
 Energy=    -40.9396845     NIter=   0.
 Energy=    -94.7459500     NIter=   0.
 SCF Done:  E(RM06) =   -615.83344259286380000000 A.U. after   10 cycles
 Energy=    -40.9396868     NIter=   0.
 Energy=    -94.7459540     NIter=   0.
 SCF Done:  E(RM06) =   -615.83344318329840000000 A.U. after    9 cycles
 Energy=    -40.9396912     NIter=   0.
 Energy=    -94.7459593     NIter=   0.
 SCF Done:  E(RM06) =   -615.83344450314330000000 A.U. after   10 cycles
 Energy=    -40.9396976     NIter=   0.
 Energy=    -94.7459630     NIter=   0.
 SCF Done:  E(RM06) =   -615.83344579522030000000 A.U. after   10 cycles
 Energy=    -40.9397025     NIter=   0.
 Energy=    -94.7459684     NIter=   0.
 SCF Done:  E(RM06) =   -615.83344648052480000000 A.U. after   10 cycles
 Energy=    -40.9397084     NIter=   0.
 Energy=    -94.7459697     NIter=   0.
 SCF Done:  E(RM06) =   -615.83344603470080000000 A.U. after   10 cycles
 Energy=    -40.9397091     NIter=   0.
 Energy=    -94.7459712     NIter=   0.
 SCF Done:  E(RM06) =   -615.83344514715820000000 A.U. after    9 cycles
 Energy=    -40.9397097     NIter=   0.
 Optimization completed.
    -- Stationary point found.

                         Standard orientation:
 ---------------------------------------------------------------------
 Center     Atomic      Atomic             Coordinates (Angstroms)
 Number     Number       Type             X           Y           Z
 ---------------------------------------------------------------------
      1          6           0       -6.604026    2.156926    0.924112
      2          6           0       -6.013236    2.908896   -0.196692
      3          6           0       -5.160714    2.157576   -1.175170
      4          6           0       -6.366579    0.828089    1.048172
      5          6           0       -4.962818    0.734123   -0.999804
      6          6           0       -5.514208    0.131677    0.079194
      7          6           0       -4.175440   -0.050985   -2.002945
      8          6           0       -4.357700   -1.542113   -1.784479
      9          1           0       -3.109624    0.224552   -1.959871
     10          1           0       -4.503700    0.212265   -3.018398
     11          6           0       -4.304316   -1.889155   -0.308173
     12          1           0       -3.615732   -2.123860   -2.341946
     13          1           0       -5.342306   -1.851973   -2.162343
     14          8           0       -5.353241   -1.179427    0.373098
     15          6           0       -4.607400    2.865341   -2.172340
     16          1           0       -4.791648    3.933575   -2.237736
     17          1           0       -3.969153    2.416466   -2.927879
     18          8           0       -6.218517    4.104360   -0.320514
     19          6           0       -7.442600    2.985722    1.839365
     20          1           0       -7.825308    2.435887    2.699696
     21          1           0       -8.294911    3.414502    1.299082
     22          1           0       -6.869746    3.843971    2.207571
     23          6           0       -6.924316   -0.024640    2.141415
     24          1           0       -7.595033    0.522342    2.802830
     25          1           0       -6.118421   -0.454729    2.746839
     26          1           0       -7.471495   -0.878123    1.726836
     27          6           0       -2.974738   -1.491424    0.368951
     28          6           0       -4.613929   -3.369170   -0.077500
     29          1           0       -5.611442   -3.595787   -0.445598
     30          1           0       -4.580712   -3.594694    0.984595
     31          1           0       -3.897375   -3.994338   -0.600588
     32          6           0       -1.718180   -2.091251   -0.256126
     33          1           0       -3.037103   -1.801103    1.415043
     34          1           0       -2.897109   -0.401841    0.360693
     35          6           0       -0.475638   -1.686512    0.536281
     36          1           0       -1.608398   -1.742168   -1.284438
     37          1           0       -1.804735   -3.177190   -0.273799
     38          6           0        0.844762   -2.117847   -0.115543
     39          1           0       -0.532824   -2.110819    1.541272
     40          1           0       -0.473255   -0.598353    0.639872
     41          6           0        2.018811   -1.492710    0.650020
     42          6           0        3.355914   -1.588091   -0.082621
     43          1           0        1.799047   -0.436470    0.825645
     44          1           0        2.106139   -1.975033    1.626331
     45          6           0        4.463191   -0.874197    0.690669
     46          1           0        3.257390   -1.133873   -1.071761
     47          1           0        3.623660   -2.635138   -0.219972
     48          6           0        5.806988   -0.823668   -0.048501
     49          1           0        4.604519   -1.365996    1.656011
     50          1           0        4.136971    0.149918    0.890089
     51          6           0        6.756898    0.131635    0.686023
     52          6           0        8.038154    0.448284   -0.083654
     53          1           0        7.013373   -0.297125    1.657774
     54          1           0        6.230023    1.071249    0.871880
     55          6           0        8.860008    1.521382    0.628328
     56          1           0        7.772174    0.787712   -1.086176
     57          1           0        8.647333   -0.451594   -0.183433
     58          6           0       10.226361    1.783723   -0.014386
     59          1           0        9.018549    1.204664    1.662532
     60          1           0        8.292768    2.454998    0.654830
     61          6           0       11.054064    2.702737    0.882894
     62          1           0       10.554898    3.662011    1.003835
     63          1           0       12.035637    2.879874    0.448944
     64          1           0       11.190096    2.260842    1.867541
     65          6           0       10.090095    2.402467   -1.403589
     66          1           0       10.753154    0.827001   -0.109451
     67          1           0        9.582265    1.726756   -2.086402
     68          1           0       11.072148    2.623736   -1.816102
     69          1           0        9.524551    3.330558   -1.349981
     70          6           0        6.418884   -2.216676   -0.176380
     71          1           0        5.630269   -0.425907   -1.054801
     72          1           0        7.359313   -2.177096   -0.718991
     73          1           0        5.753527   -2.884372   -0.716967
     74          1           0        6.606016   -2.638491    0.809105
     75          6           0        0.965910   -3.639325   -0.160080
     76          1           0        0.862401   -1.735256   -1.142872
     77          1           0        1.913537   -3.938212   -0.599325
     78          1           0        0.172135   -4.075738   -0.760342
     79          1           0        0.907000   -4.051947    0.845005
 ---------------------------------------------------------------------

 g2xtb_interface/interface.py')\Mixed\C29H48O2\PBEAUJEA\10-Oct-2019\0\\
 #p opt=nomicro oniom(m06/6-311+g(d):external="/home/pbeaujea/g2xtb_int
 erface/interface.py")\\Vitamin E oxidation ONIOM opt\\0,1\C,-1.7986595
 343,-4.0795399917,1.3808019657\C,-1.1263141639,-3.8630384155,2.6737715
 103\C,0.2315773784,-3.2268910031,2.6619185078\C,-1.1867649826,-3.71031
 66469,0.2289160888\C,0.8224622874,-2.8350516032,1.3995982883\C,0.14869
 40306,-3.1051930402,0.257552455\C,2.1449660053,-2.1332116717,1.3671092
 213\C,2.4150852708,-1.5546481891,-0.0101010011\H,2.9535949333,-2.81695

 Normal termination of Gaussian 16 at Thu Oct 10 11:59:27 2019.
